# vtk DataFile Version 1.0
vtk output
ASCII
DATASET STRUCTURED_POINTS
DIMENSIONS 27 64 64
ASPECT_RATIO 1.500000 1.000000 1.000000
ORIGIN 0.000000 0.000000 0.000000
POINT_DATA 110592
SCALARS scalars short
LOOKUP_TABLE default
42 41 46 50 42 51 
43 45 44 45 48 47 
38 46 46 49 46 44 
44 42 42 44 47 43 
46 45 45 47 44 48 
48 45 44 41 47 46 
44 45 46 44 44 46 
44 41 46 44 41 49 
46 48 40 45 42 36 
44 44 45 47 43 43 
46 39 46 43 41 47 
44 43 44 45 43 48 
46 46 53 46 43 44 
41 43 38 44 45 42 
44 46 44 46 47 44 
44 46 47 47 45 43 
41 45 49 47 43 45 
44 46 38 40 46 45 
46 41 40 42 47 44 
42 44 44 45 43 44 
41 43 50 45 44 47 
44 44 48 46 46 46 
42 41 44 45 47 41 
43 46 45 45 45 46 
46 44 45 49 42 47 
44 47 46 44 46 45 
40 44 49 48 46 50 
41 45 45 46 51 41 
42 42 43 49 44 46 
43 43 50 42 46 46 
49 46 41 46 45 46 
44 50 45 37 40 46 
43 42 41 46 43 45 
43 39 44 46 48 50 
46 45 49 52 44 42 
45 46 47 45 48 44 
40 39 45 43 43 46 
41 43 41 43 41 43 
48 49 48 43 42 44 
47 49 46 43 43 43 
43 39 40 44 44 43 
43 45 44 41 43 41 
46 47 44 44 43 44 
44 43 44 44 44 44 
42 46 44 44 40 43 
44 41 43 43 47 40 
42 43 40 41 41 42 
43 40 40 47 43 45 
49 51 46 44 46 39 
42 43 44 45 46 46 
42 39 41 37 42 41 
44 42 42 42 40 44 
44 41 41 42 40 48 
47 46 43 46 42 47 
40 39 46 39 44 45 
44 44 43 44 48 45 
46 47 43 42 39 44 
46 48 44 44 42 41 
48 45 36 43 44 49 
38 42 44 47 44 41 
42 49 45 45 51 45 
43 45 46 44 42 44 
42 43 42 41 43 40 
43 46 51 41 42 42 
45 45 44 46 47 44 
44 50 48 46 45 47 
45 51 46 46 45 41 
42 45 40 39 42 44 
43 41 42 41 42 43 
43 43 50 44 58 53 
56 47 46 46 55 49 
47 45 38 42 40 42 
39 42 41 40 43 42 
42 44 47 45 45 44 
43 48 53 55 50 43 
53 49 41 44 45 43 
43 46 41 42 47 37 
43 45 42 44 46 46 
46 49 41 48 53 56 
38 44 51 46 43 42 
43 43 41 40 47 49 
42 42 40 42 47 44 
39 43 46 50 44 45 
48 51 57 41 40 47 
43 45 46 45 42 41 
40 42 41 37 45 43 
46 46 45 46 49 51 
49 42 43 47 50 64 
51 45 43 42 40 50 
42 41 39 41 41 45 
37 39 43 47 44 47 
48 43 45 43 42 43 
46 53 62 46 48 45 
42 44 48 40 46 47 
47 40 49 43 37 40 
45 44 44 48 45 47 
48 42 44 46 61 55 
42 47 47 56 45 41 
38 45 48 40 41 43 
39 41 44 40 44 37 
45 40 38 48 44 37 
45 60 63 45 46 47 
47 44 42 44 45 42 
46 42 42 45 43 46 
45 51 44 46 42 47 
44 52 47 53 68 64 
45 45 47 49 40 42 
44 47 46 44 43 40 
44 44 45 44 47 41 
47 44 47 45 51 51 
56 62 71 51 45 52 
50 45 47 47 48 41 
47 47 38 47 43 44 
49 44 46 42 48 47 
49 54 55 68 74 72 
59 52 58 47 50 49 
50 42 44 46 45 45 
42 43 45 49 49 49 
43 43 48 50 56 54 
68 72 76 52 51 56 
53 47 47 48 43 47 
45 43 43 45 44 48 
49 51 48 52 48 51 
50 47 50 70 67 62 
49 53 53 58 47 45 
50 42 44 44 46 42 
52 44 46 46 49 49 
51 49 51 55 59 51 
63 80 56 56 48 54 
55 60 48 49 43 44 
43 44 41 49 42 46 
46 48 54 52 56 48 
64 55 48 56 68 61 
64 53 61 58 64 48 
51 44 42 40 42 41 
38 42 42 47 52 48 
46 66 61 73 67 63 
65 74 77 76 54 56 
65 59 54 46 47 47 
43 44 48 44 44 45 
47 49 54 42 53 67 
75 72 60 59 75 69 
54 55 63 70 66 53 
52 54 48 47 45 55 
43 44 44 50 49 53 
47 59 72 68 70 58 
54 72 95 69 61 60 
74 59 54 51 51 48 
49 47 43 37 42 41 
45 45 50 50 65 68 
63 73 57 68 61 83 
60 55 59 62 60 56 
58 49 52 45 46 42 
41 46 42 44 47 53 
56 51 51 60 77 59 
81 64 81 63 60 63 
60 54 53 52 56 49 
49 42 40 46 47 46 
47 49 53 59 55 58 
52 70 62 86 84 86 
66 58 59 61 52 51 
51 50 46 47 46 44 
52 49 45 45 47 48 
51 50 63 67 78 69 
76 78 86 81 61 67 
60 56 50 52 51 52 
51 46 51 46 46 44 
46 49 49 64 69 59 
58 54 57 73 73 82 
92 68 85 64 59 52 
53 54 60 55 50 44 
53 48 46 45 47 50 
70 75 47 49 57 62 
75 81 77 68 97 106 
54 65 60 61 58 51 
46 47 47 44 47 52 
44 51 63 76 75 58 
48 64 72 67 72 88 
86 76 77 59 72 58 
54 54 47 51 48 42 
50 45 43 44 51 61 
65 62 57 54 76 76 
73 76 98 101 76 61 
63 64 62 58 48 43 
45 46 37 50 54 50 
50 58 65 64 68 61 
58 77 86 83 68 81 
94 72 61 78 66 59 
50 49 43 41 53 48 
53 51 50 50 65 63 
60 77 64 58 78 90 
101 85 86 107 78 70 
90 67 62 55 50 46 
53 44 46 48 51 51 
55 59 52 61 68 73 
60 106 101 78 86 76 
83 85 66 58 75 75 
53 49 48 51 46 61 
62 55 52 55 53 50 
54 55 73 62 82 92 
83 92 90 83 90 86 
69 76 80 50 52 46 
51 53 49 54 48 46 
49 51 59 58 62 79 
90 91 81 73 75 117 
102 91 98 79 84 70 
53 50 45 49 47 43 
45 40 48 52 58 52 
51 63 68 68 74 78 
75 87 101 94 100 82 
77 81 75 57 56 56 
52 48 52 43 41 44 
50 55 51 53 63 61 
65 73 77 87 79 75 
82 88 79 73 62 60 
53 55 50 53 46 51 
46 45 41 47 58 54 
55 59 60 64 56 74 
67 63 62 62 76 61 
52 60 66 58 62 57 
50 43 48 48 43 40 
45 58 56 49 53 60 
55 55 59 64 55 55 
70 68 59 58 54 56 
60 74 60 45 47 37 
53 42 42 40 45 50 
57 49 57 61 57 59 
64 54 58 62 69 62 
79 63 55 63 77 57 
42 46 36 40 41 40 
46 50 44 53 47 54 
57 55 55 75 60 61 
63 65 66 66 63 70 
88 66 45 45 45 40 
43 39 42 45 45 46 
49 49 58 58 55 49 
57 56 68 61 65 55 
53 61 82 86 59 43 
46 44 50 45 39 43 
43 43 42 43 50 55 
63 63 62 55 54 58 
62 62 51 53 71 66 
57 47 43 41 45 48 
42 42 49 45 41 41 
43 47 50 55 69 64 
63 64 62 59 63 46 
54 53 52 49 45 41 
44 46 34 39 41 49 
45 46 45 46 42 47 
54 53 55 50 51 55 
58 51 46 46 50 52 
47 42 42 43 43 41 
42 43 47 44 46 41 
44 45 46 43 46 53 
57 63 72 58 49 41 
44 48 46 44 43 42 
44 42 51 44 43 47 
45 44 43 45 44 43 
42 48 49 49 54 58 
50 49 43 45 47 47 
43 43 40 43 43 43 
45 39 45 42 44 52 
48 42 44 48 47 46 
42 47 50 43 44 42 
44 42 48 46 47 41 
40 40 39 35 41 46 
44 44 46 47 44 47 
43 49 47 41 47 49 
42 47 42 47 45 43 
42 47 46 45 42 43 
39 40 45 43 45 45 
50 48 50 40 43 45 
47 42 44 44 47 43 
46 45 42 43 45 48 
47 49 40 51 40 46 
48 46 45 42 42 46 
40 43 50 49 39 42 
44 40 40 43 42 45 
48 45 43 45 48 40 
46 42 45 42 46 45 
44 45 40 39 45 45 
50 40 48 41 38 40 
41 42 42 44 44 42 
41 43 43 44 40 51 
47 49 40 47 40 50 
47 47 38 47 44 47 
44 36 46 46 43 46 
52 43 38 44 42 45 
42 41 46 46 46 51 
42 43 47 45 41 44 
40 45 44 39 41 50 
41 43 44 48 42 45 
45 45 47 44 46 46 
45 45 44 47 44 46 
46 40 43 44 46 45 
45 45 47 45 43 44 
43 44 46 43 42 45 
42 44 43 45 43 46 
43 42 41 46 44 46 
47 44 41 45 45 46 
47 46 46 45 45 43 
42 43 45 46 45 42 
46 45 45 46 44 44 
48 46 47 46 45 45 
43 45 46 41 45 46 
44 47 44 44 45 47 
52 44 46 44 42 44 
44 45 44 47 44 44 
42 46 44 44 49 48 
44 43 43 44 43 43 
46 45 42 47 48 41 
40 45 44 45 41 42 
43 41 46 45 44 44 
41 45 43 44 45 45 
44 43 44 46 43 41 
45 48 43 42 43 40 
41 40 44 44 42 42 
42 46 45 43 44 41 
39 43 48 48 43 45 
44 45 46 43 44 45 
44 43 41 42 42 41 
42 42 46 46 41 45 
44 44 42 43 43 50 
45 43 43 46 46 42 
43 42 43 42 42 45 
43 45 42 44 44 44 
46 42 44 42 43 42 
43 43 45 45 44 44 
41 43 43 38 41 44 
44 42 42 44 43 43 
43 41 43 46 46 45 
43 42 43 42 41 43 
40 45 42 44 40 43 
46 42 47 45 43 42 
41 43 43 45 43 42 
44 44 43 45 40 40 
40 44 46 41 43 41 
43 42 45 48 42 44 
44 42 44 42 43 44 
44 43 45 43 41 45 
45 41 41 42 41 45 
42 46 41 43 43 44 
43 43 43 42 43 44 
46 46 43 44 43 44 
43 46 44 43 44 44 
45 42 43 45 46 46 
45 44 42 44 44 46 
43 43 43 46 48 44 
44 44 46 42 48 46 
44 44 44 46 43 44 
45 44 46 47 43 41 
42 45 44 45 44 45 
45 50 45 47 45 46 
46 53 47 49 42 42 
45 46 45 43 42 44 
46 46 45 46 41 41 
44 43 46 43 45 44 
44 44 47 47 57 53 
49 46 47 52 54 44 
43 42 43 42 47 46 
42 43 43 44 43 46 
44 42 45 45 46 43 
46 51 54 50 45 45 
48 51 46 43 43 43 
42 44 46 49 44 47 
45 47 45 46 43 46 
43 47 42 51 53 55 
45 45 46 44 46 44 
42 41 43 43 42 42 
42 45 47 45 46 46 
47 45 45 46 45 46 
50 49 52 48 43 47 
50 46 43 44 44 44 
47 44 38 42 44 45 
45 42 45 46 46 47 
48 47 51 52 57 56 
48 45 46 45 45 45 
46 42 42 45 43 37 
37 42 46 44 44 47 
45 44 45 47 44 50 
48 61 64 46 46 43 
42 42 46 43 43 42 
46 43 41 38 42 43 
44 46 49 44 43 43 
47 45 50 47 55 74 
49 44 44 44 43 47 
43 42 42 41 42 39 
38 41 44 46 44 42 
43 41 44 43 47 44 
45 50 76 47 44 47 
46 43 47 42 43 46 
42 42 44 42 44 45 
44 45 47 44 45 44 
43 45 50 50 59 77 
45 44 46 48 42 42 
42 39 44 46 43 48 
47 43 42 44 44 45 
46 51 46 48 48 51 
54 67 90 50 44 51 
47 47 44 44 42 44 
43 46 46 44 44 42 
44 45 47 42 48 48 
56 53 50 57 76 89 
54 46 56 49 45 46 
48 44 43 48 46 42 
41 44 46 47 51 48 
47 44 48 53 52 52 
58 62 83 50 46 56 
53 42 46 44 45 44 
47 44 46 35 42 45 
49 49 48 49 50 50 
51 51 51 58 55 67 
57 55 60 63 50 46 
47 49 45 47 46 51 
41 43 43 47 49 49 
49 51 55 58 59 53 
57 61 61 68 56 59 
63 54 50 45 48 44 
48 47 43 46 44 43 
44 47 52 52 57 63 
61 62 60 60 69 76 
68 54 57 60 57 48 
48 47 46 43 44 39 
52 44 46 51 54 50 
51 67 75 72 69 71 
66 78 68 67 57 68 
71 55 48 47 47 44 
43 47 44 42 44 42 
42 52 50 50 60 81 
77 72 71 70 82 85 
64 58 77 71 56 50 
49 50 46 46 47 51 
45 47 44 45 46 51 
49 61 65 73 82 75 
61 69 95 71 59 69 
69 59 55 53 47 49 
44 46 48 44 44 40 
49 49 48 52 58 65 
72 78 59 62 58 85 
67 54 61 62 59 57 
56 47 46 45 48 46 
43 43 41 47 48 46 
51 55 66 71 80 53 
67 68 74 56 51 68 
66 59 58 56 53 48 
45 45 41 44 47 46 
42 45 49 55 60 55 
55 67 53 72 76 65 
57 56 59 68 60 51 
50 52 46 47 46 43 
42 45 50 43 46 55 
61 59 54 61 64 54 
66 67 74 80 56 64 
68 68 54 46 47 50 
49 47 49 50 49 51 
46 51 50 62 64 54 
61 65 57 75 79 77 
85 67 65 61 68 54 
51 47 54 49 44 44 
48 46 46 46 47 51 
69 69 51 55 61 59 
70 87 89 76 67 72 
55 83 60 58 53 52 
55 50 48 44 46 45 
45 47 55 72 71 55 
48 59 60 76 73 84 
62 61 66 56 78 62 
58 50 45 48 47 46 
46 47 47 49 52 64 
71 68 63 56 65 65 
68 77 77 80 67 56 
61 64 59 59 48 45 
45 48 46 45 46 50 
53 61 67 72 69 64 
61 70 85 77 71 75 
94 77 64 73 63 61 
55 50 44 45 45 51 
50 52 50 53 65 70 
66 77 76 66 80 91 
108 77 89 117 85 71 
77 68 73 60 50 46 
54 47 50 50 51 48 
52 57 59 62 73 91 
72 91 87 86 106 96 
102 90 70 75 70 67 
59 50 49 53 46 48 
47 51 52 55 52 54 
62 74 89 69 89 78 
102 105 93 87 94 70 
74 75 69 55 49 48 
49 46 42 45 48 46 
48 50 55 56 83 87 
85 86 101 88 99 112 
102 115 88 83 78 65 
52 53 48 50 46 41 
39 46 46 47 47 53 
51 75 71 65 76 89 
73 111 105 89 111 74 
76 76 65 50 56 48 
51 47 45 39 47 47 
50 60 53 54 70 66 
59 69 80 88 92 85 
93 98 61 75 67 58 
58 56 50 52 43 44 
51 44 45 51 61 49 
52 61 69 59 56 64 
78 69 64 71 71 58 
63 70 55 62 63 52 
48 46 44 46 44 45 
47 54 47 51 58 66 
57 63 60 68 56 52 
58 62 59 62 57 57 
64 69 64 47 46 39 
48 45 42 44 49 47 
56 54 59 60 60 63 
80 71 59 60 68 64 
67 57 64 76 76 60 
46 43 40 50 45 44 
45 48 52 52 46 54 
57 59 70 72 65 64 
63 70 77 67 62 68 
96 69 50 45 46 39 
42 45 44 42 43 48 
52 48 60 60 60 62 
68 64 55 54 64 60 
55 57 74 86 55 44 
45 43 40 44 42 42 
43 45 46 47 52 60 
57 60 57 61 64 60 
56 59 54 55 63 58 
55 45 44 45 41 41 
48 43 40 41 43 44 
47 50 50 56 56 51 
61 56 58 54 53 47 
52 51 52 48 45 42 
41 44 45 41 40 42 
43 43 42 44 48 48 
49 52 51 58 52 60 
69 56 49 46 44 45 
45 43 44 43 44 43 
43 40 43 44 47 45 
44 47 45 45 49 51 
48 56 57 58 53 44 
46 45 40 41 43 44 
44 42 44 40 44 44 
42 48 45 44 44 44 
42 44 46 44 47 48 
45 43 44 45 47 42 
43 44 45 44 43 47 
37 44 41 45 46 43 
44 45 44 42 45 42 
44 45 48 42 41 44 
44 45 46 45 46 46 
46 44 40 42 44 42 
42 44 42 44 41 44 
45 48 42 46 48 45 
46 42 44 43 42 43 
46 47 45 45 44 41 
39 45 45 46 43 40 
40 41 44 44 45 44 
45 44 49 46 43 45 
44 43 41 44 42 42 
44 46 44 47 44 43 
42 40 38 45 42 46 
45 48 43 46 44 44 
42 41 42 45 44 43 
42 45 43 44 43 45 
43 47 44 41 41 43 
46 46 42 43 46 44 
46 45 45 41 44 43 
47 47 44 42 44 42 
44 48 42 40 40 44 
45 41 42 46 46 48 
44 45 43 46 44 44 
45 45 45 44 44 48 
44 42 37 44 42 45 
40 50 46 40 46 48 
42 45 42 44 43 47 
45 45 47 48 43 45 
42 48 45 45 46 43 
48 45 49 45 45 46 
43 44 46 48 49 43 
46 45 43 46 46 46 
45 47 47 44 46 45 
43 46 46 44 45 45 
46 42 45 49 43 49 
44 47 43 48 46 44 
44 46 45 45 47 45 
46 43 46 42 46 45 
45 44 46 47 44 44 
42 44 45 45 45 42 
45 47 46 48 44 44 
44 42 45 43 43 45 
45 47 45 47 42 48 
50 46 48 42 41 43 
42 45 46 44 44 45 
43 44 45 42 44 48 
43 44 45 47 44 45 
48 46 47 50 47 44 
43 41 44 44 45 46 
42 41 42 43 43 42 
38 42 44 46 45 43 
46 40 43 45 44 39 
44 45 44 44 42 44 
43 44 45 43 43 42 
40 44 43 44 43 46 
42 42 45 46 43 43 
45 45 41 42 46 44 
43 41 43 43 44 47 
42 45 43 43 41 44 
44 45 45 42 41 42 
45 45 45 45 42 46 
46 43 45 42 42 42 
42 43 41 44 44 42 
44 42 42 41 42 44 
43 43 45 47 45 46 
41 42 41 41 41 45 
41 43 46 42 45 42 
42 43 42 45 46 45 
47 43 42 44 46 42 
43 42 42 40 39 41 
45 42 46 45 46 44 
43 46 46 48 44 42 
43 44 45 42 43 41 
42 41 45 42 43 43 
45 43 42 43 47 45 
44 42 44 45 44 44 
45 44 44 43 41 42 
43 41 44 44 44 46 
43 43 45 46 44 41 
45 46 43 46 44 42 
44 46 46 44 44 38 
41 45 44 44 47 44 
44 40 42 45 44 47 
45 47 45 39 43 42 
44 45 45 45 46 47 
46 46 43 45 44 47 
43 47 42 43 43 43 
42 43 45 47 46 43 
44 42 43 44 43 45 
45 44 45 46 45 43 
46 52 49 47 45 43 
43 42 45 43 43 44 
46 47 51 42 47 44 
45 43 46 44 44 45 
43 45 49 49 55 57 
47 45 45 46 50 41 
42 45 44 43 46 44 
43 43 45 44 44 46 
45 46 46 46 43 46 
45 52 55 46 45 45 
45 49 47 45 46 44 
43 42 42 42 45 45 
44 46 45 46 42 45 
46 49 44 45 54 59 
50 46 47 47 48 46 
41 43 43 44 39 40 
41 44 45 42 45 48 
44 47 45 47 47 46 
47 65 58 49 44 49 
48 47 44 46 44 44 
45 42 42 39 42 48 
44 41 43 42 46 46 
44 45 45 51 66 66 
47 46 47 47 48 44 
47 43 44 45 44 42 
43 43 42 42 41 44 
42 48 44 45 46 45 
49 60 74 49 45 44 
45 46 44 45 43 43 
44 48 41 49 45 42 
44 41 48 45 46 44 
50 46 48 46 52 77 
49 44 45 47 46 42 
43 40 44 48 42 37 
44 45 40 47 42 44 
47 44 44 47 46 46 
46 47 74 52 43 50 
51 48 45 44 46 47 
45 41 39 40 42 42 
43 45 47 43 45 42 
45 44 47 50 56 81 
51 48 47 48 45 44 
47 44 46 47 46 43 
42 45 43 47 44 44 
50 53 46 47 48 45 
52 60 79 51 44 48 
50 46 45 45 46 42 
43 40 44 43 42 45 
47 43 42 46 50 46 
52 53 48 56 64 80 
54 45 59 55 49 44 
45 46 42 44 46 43 
41 41 46 49 47 46 
46 47 50 48 50 49 
50 61 68 53 43 58 
53 47 45 44 44 44 
45 47 43 42 45 42 
47 49 47 48 50 52 
51 50 48 50 54 61 
62 47 59 53 49 47 
47 46 46 44 43 44 
45 47 43 47 45 48 
52 52 58 59 53 50 
58 66 67 66 53 60 
60 49 48 46 46 46 
44 46 43 44 43 43 
46 50 50 52 52 62 
67 57 51 61 67 72 
75 54 56 57 56 52 
48 50 45 43 44 37 
45 44 45 51 54 48 
50 59 76 69 67 62 
68 72 68 68 59 63 
70 59 52 51 50 46 
46 43 42 41 45 45 
47 50 51 54 53 66 
64 72 71 62 69 85 
66 63 69 69 67 53 
51 52 49 46 44 45 
41 44 43 45 46 50 
52 61 58 62 77 66 
61 65 89 57 61 68 
75 56 54 54 51 48 
46 46 47 43 44 41 
45 48 47 49 61 73 
73 81 60 57 56 90 
58 57 61 64 56 54 
51 48 50 42 45 49 
45 46 43 46 46 43 
48 52 68 70 85 58 
61 62 91 55 48 57 
63 59 57 50 55 52 
48 45 47 46 44 44 
43 44 50 51 50 62 
56 80 58 68 65 94 
57 50 50 55 55 55 
53 56 45 48 44 49 
45 44 45 42 46 49 
53 55 59 68 78 68 
66 83 113 79 52 53 
60 65 60 48 47 50 
51 47 47 49 50 50 
49 49 50 62 67 62 
56 65 65 69 74 83 
95 65 59 63 62 58 
50 53 53 48 49 42 
46 50 49 51 50 52 
65 63 55 55 69 60 
67 83 78 71 82 83 
54 76 62 53 54 54 
51 50 46 47 48 53 
49 50 53 66 64 54 
54 73 61 68 84 81 
73 74 72 55 65 54 
54 53 48 46 51 49 
52 46 52 49 52 60 
64 64 60 57 85 68 
79 74 79 91 74 57 
65 64 56 54 52 49 
49 48 50 47 50 50 
56 57 64 60 65 76 
62 73 85 77 68 85 
109 78 61 78 67 64 
50 54 52 47 48 51 
47 47 51 53 63 78 
63 67 87 73 74 84 
98 93 84 136 94 71 
74 71 72 55 50 51 
51 48 50 49 46 47 
51 64 67 68 78 93 
71 78 74 110 141 100 
118 89 69 82 87 73 
58 54 50 48 48 46 
48 47 50 52 51 53 
70 74 79 64 74 82 
124 169 129 92 84 64 
72 72 75 57 52 47 
48 49 46 47 44 46 
50 51 52 61 77 81 
71 72 77 96 130 109 
93 85 77 77 85 76 
52 49 49 48 46 44 
45 44 47 51 49 50 
56 73 68 61 66 78 
81 121 127 113 114 72 
84 87 71 56 60 54 
49 45 49 46 49 47 
57 56 49 57 69 70 
64 62 74 74 97 94 
88 95 67 75 71 63 
55 64 56 44 43 46 
44 47 47 51 54 54 
53 58 70 59 58 58 
61 69 69 68 78 63 
60 70 61 56 60 57 
46 44 42 45 46 47 
49 49 52 53 60 68 
64 64 62 62 57 58 
55 65 58 59 60 61 
66 69 67 45 44 41 
43 44 44 42 47 49 
52 54 62 58 60 70 
73 64 65 70 73 58 
59 65 65 79 75 58 
47 48 43 40 43 45 
43 44 51 53 50 62 
55 53 70 73 72 82 
77 76 65 64 60 63 
97 66 47 44 41 39 
41 43 42 40 41 48 
49 55 65 52 50 58 
62 66 61 56 64 63 
57 58 70 89 51 48 
48 42 41 41 45 44 
42 41 44 49 52 60 
52 55 52 56 71 63 
57 63 57 53 61 64 
55 49 44 48 45 42 
43 43 45 44 43 47 
48 47 53 56 54 55 
64 67 66 69 55 47 
49 48 50 48 43 44 
43 42 43 44 43 44 
46 43 40 46 46 48 
54 56 50 70 63 71 
84 52 47 46 46 43 
48 44 43 43 44 43 
42 41 42 41 41 43 
44 48 47 47 48 49 
53 51 58 59 51 45 
44 43 44 44 44 41 
41 42 45 45 44 42 
43 47 46 43 44 48 
43 45 47 47 44 46 
49 48 44 46 48 41 
42 45 44 42 44 44 
45 42 42 44 45 43 
45 48 51 43 45 44 
44 44 48 45 44 46 
43 47 43 45 47 45 
44 43 40 41 44 44 
44 44 46 48 44 45 
44 43 45 46 45 46 
47 43 43 43 46 40 
44 46 46 44 43 47 
45 45 41 41 43 43 
42 43 46 48 45 48 
43 42 45 47 45 43 
46 45 42 42 44 44 
43 41 44 47 47 43 
45 43 46 43 44 47 
51 44 42 42 43 47 
46 47 46 42 44 42 
45 46 44 44 42 40 
38 48 46 46 42 43 
40 43 44 46 45 45 
46 46 47 44 47 42 
43 43 44 40 43 43 
46 47 46 41 44 42 
41 43 48 44 51 43 
45 43 41 47 47 44 
46 46 42 44 49 47 
41 42 42 44 44 42 
40 50 47 51 51 42 
43 47 43 47 46 48 
45 48 52 47 45 44 
41 43 40 44 48 42 
44 41 49 45 43 43 
44 44 47 45 48 43 
45 47 48 45 48 44 
48 47 48 45 43 44 
41 45 41 42 44 44 
46 46 43 43 43 43 
42 46 48 46 44 46 
41 46 45 48 45 45 
46 44 47 49 45 43 
44 44 46 50 48 47 
46 42 43 44 43 45 
43 44 46 42 40 45 
46 44 47 47 46 43 
43 46 46 44 42 42 
45 45 43 42 44 43 
47 48 47 44 47 45 
45 44 43 44 44 44 
46 47 44 48 43 47 
45 42 43 45 47 44 
42 41 45 44 44 44 
44 44 45 44 44 43 
41 42 44 47 45 43 
46 41 45 44 46 42 
41 46 45 41 43 44 
41 42 41 39 42 41 
42 45 44 45 44 43 
45 48 46 43 39 44 
43 46 42 42 45 45 
42 45 45 42 43 45 
45 45 41 39 41 45 
42 47 42 44 45 44 
41 42 42 48 45 46 
41 44 41 42 43 45 
46 44 41 44 43 44 
42 45 44 44 45 43 
42 44 44 44 43 45 
45 45 45 44 41 42 
42 45 42 43 44 39 
43 43 45 45 50 44 
45 43 43 44 44 44 
43 42 41 42 43 44 
48 45 42 44 47 43 
44 46 44 45 43 42 
44 44 40 41 42 44 
45 41 41 43 46 43 
44 44 46 45 46 43 
44 43 45 46 41 42 
41 44 44 43 41 45 
43 43 43 44 43 49 
44 41 40 44 42 43 
41 45 43 44 45 44 
46 43 43 42 42 43 
46 46 43 40 46 45 
41 42 42 42 43 42 
44 44 45 41 45 41 
43 42 40 43 46 44 
45 45 43 45 46 45 
43 46 44 43 42 42 
42 46 44 45 46 49 
46 44 43 44 44 41 
44 44 40 43 45 46 
48 52 52 45 46 45 
45 40 41 47 44 45 
44 43 44 45 45 42 
41 43 42 41 44 44 
44 44 46 51 53 56 
51 46 46 48 48 45 
47 45 46 43 42 42 
41 43 46 45 40 40 
40 43 46 44 42 47 
49 51 58 51 44 45 
46 51 49 45 43 47 
42 42 38 43 46 45 
43 42 41 45 41 40 
45 44 42 45 64 62 
46 44 44 44 46 46 
45 44 44 40 41 39 
45 45 42 42 43 46 
47 47 42 42 43 44 
49 71 67 53 45 46 
46 51 44 44 44 42 
42 44 44 45 42 44 
46 46 46 47 47 48 
45 46 43 49 65 81 
49 43 45 47 47 45 
46 42 41 42 44 43 
50 42 43 45 48 48 
44 50 43 42 47 42 
51 62 80 47 45 45 
43 42 45 46 42 43 
44 46 44 45 46 43 
44 46 48 45 45 43 
45 46 46 53 61 70 
45 44 44 46 45 45 
43 41 44 47 43 45 
47 44 40 44 44 44 
43 41 46 49 46 49 
52 53 72 51 47 44 
47 43 45 43 43 42 
47 44 41 44 41 42 
41 45 48 46 43 42 
44 45 46 55 63 73 
51 48 44 45 44 41 
44 46 45 47 45 39 
41 43 45 48 46 44 
47 49 45 47 51 46 
53 59 72 54 47 46 
46 48 46 45 47 45 
44 42 45 42 44 43 
46 44 42 47 46 46 
47 50 45 59 58 62 
61 46 51 50 52 46 
44 44 42 43 43 44 
44 44 45 44 46 42 
45 47 49 43 44 47 
54 58 56 61 48 54 
50 47 46 46 43 45 
43 44 39 45 44 44 
44 47 44 43 51 51 
51 52 50 52 53 55 
61 47 52 53 47 46 
40 44 44 45 46 38 
38 43 43 46 47 50 
52 52 52 56 54 50 
57 60 60 58 50 58 
53 50 49 47 45 42 
45 48 42 41 43 44 
43 47 47 49 54 56 
66 69 54 66 71 67 
83 55 63 66 56 50 
50 51 45 45 45 39 
44 48 48 47 46 45 
50 54 61 73 73 58 
66 77 74 90 64 68 
74 61 50 49 49 46 
48 45 42 45 42 47 
47 51 49 47 50 55 
68 77 63 62 75 79 
67 60 64 74 67 53 
53 51 46 44 44 47 
46 41 46 43 47 49 
49 49 54 61 75 62 
63 65 85 60 60 66 
64 58 56 49 48 50 
45 45 47 39 43 42 
45 47 48 51 61 67 
63 78 57 61 63 94 
53 58 63 61 55 53 
47 49 48 48 44 46 
44 44 43 44 47 48 
50 54 61 65 83 57 
58 64 101 54 57 59 
69 63 54 51 49 50 
47 47 43 47 44 42 
40 50 47 49 52 57 
55 84 51 60 69 97 
58 56 57 62 55 48 
49 49 50 51 46 44 
41 44 44 45 49 46 
48 55 56 68 83 60 
63 80 109 78 52 60 
57 58 53 56 50 56 
51 46 48 48 47 46 
51 49 54 60 72 58 
56 68 71 73 75 87 
103 74 66 61 59 50 
56 54 57 53 46 42 
52 47 45 46 49 51 
58 70 55 55 72 71 
75 81 75 80 95 88 
60 72 58 57 55 59 
50 48 46 52 46 48 
50 49 59 62 67 58 
53 68 67 85 81 79 
76 79 65 52 63 64 
56 51 50 47 50 52 
50 46 49 48 51 60 
59 61 63 57 64 67 
82 82 77 82 73 62 
60 65 64 54 50 53 
51 52 49 46 51 51 
50 54 68 68 65 74 
62 67 91 74 72 89 
100 86 64 67 64 66 
54 52 53 51 52 53 
46 48 51 52 61 76 
70 74 90 64 79 86 
96 86 95 142 99 71 
69 68 67 55 51 47 
48 47 46 49 44 46 
53 63 70 66 79 96 
66 81 72 92 116 147 
136 106 67 73 84 66 
57 51 53 46 47 43 
51 49 49 51 54 59 
77 75 84 60 70 86 
96 143 172 107 110 72 
65 73 63 55 51 49 
45 49 49 44 45 46 
46 50 56 72 93 89 
77 76 68 78 95 127 
107 103 99 73 78 67 
53 49 49 48 44 44 
43 41 45 48 46 46 
65 88 76 62 74 73 
89 121 137 115 126 72 
81 77 82 60 57 50 
44 43 44 40 45 48 
50 51 48 52 76 67 
64 72 80 90 100 103 
89 104 66 65 54 64 
57 56 51 42 40 41 
46 44 45 48 56 56 
53 77 67 59 55 59 
61 73 78 71 78 63 
59 57 57 60 58 58 
48 47 44 47 43 45 
45 51 57 47 69 69 
65 57 64 58 59 66 
64 71 62 63 54 59 
64 68 65 44 45 47 
42 45 43 44 46 48 
46 54 59 62 60 60 
64 67 65 78 85 70 
64 61 55 72 83 57 
48 48 46 40 44 46 
42 44 47 50 60 52 
53 51 57 64 65 68 
72 85 67 67 59 57 
92 77 49 46 45 44 
44 42 42 40 45 48 
50 61 51 51 55 60 
61 56 57 58 68 62 
60 54 82 88 59 47 
45 45 45 38 45 42 
45 45 44 49 53 48 
50 58 61 59 62 62 
63 67 55 52 59 72 
56 49 44 45 45 43 
40 43 46 44 42 44 
44 49 49 51 55 74 
67 72 66 77 74 65 
49 48 50 45 41 46 
43 40 40 45 43 45 
46 44 45 47 49 47 
50 55 61 67 68 64 
87 67 51 47 48 40 
45 42 43 43 44 43 
45 41 44 42 41 45 
45 47 45 48 51 55 
57 54 55 65 53 45 
45 48 45 44 42 44 
42 43 44 46 44 43 
43 40 42 41 44 42 
44 44 47 47 48 51 
49 48 42 44 44 44 
43 47 41 41 42 44 
46 43 45 43 44 42 
45 43 44 42 45 46 
44 46 48 47 46 44 
44 46 43 43 45 41 
44 42 45 38 42 44 
42 43 44 45 45 45 
44 44 45 45 47 45 
46 47 44 46 45 41 
41 43 42 44 43 45 
48 46 42 43 43 43 
43 45 44 42 41 45 
47 48 43 43 45 42 
42 44 44 45 46 45 
45 44 44 46 45 40 
41 45 45 46 44 46 
45 44 44 42 45 43 
42 47 44 43 43 45 
42 45 48 45 42 44 
40 44 48 47 43 44 
42 43 46 43 43 46 
47 46 46 46 44 43 
44 42 44 42 43 45 
45 45 48 40 44 52 
41 44 43 43 41 42 
47 43 45 43 44 44 
48 46 47 42 45 46 
39 41 42 41 47 42 
42 45 46 46 39 40 
41 43 43 47 44 44 
46 49 43 47 51 47 
44 45 47 44 38 46 
44 42 35 46 42 43 
45 40 41 46 44 45 
44 41 46 43 47 48 
45 43 45 50 46 44 
43 43 43 46 46 44 
44 44 46 43 45 43 
44 45 45 42 42 42 
44 42 46 42 43 44 
46 44 45 47 47 45 
48 47 44 45 43 47 
46 47 43 42 44 47 
43 43 40 43 44 45 
45 45 44 45 47 43 
47 44 42 44 43 43 
44 44 44 44 42 42 
43 46 47 47 47 43 
44 43 43 44 43 45 
43 47 43 47 44 44 
44 46 50 39 42 43 
43 44 45 43 42 44 
43 41 45 47 41 42 
46 43 43 43 45 43 
44 44 43 45 46 45 
42 43 44 44 44 43 
43 42 42 42 43 45 
44 43 44 46 45 41 
43 40 44 46 44 45 
44 44 47 46 44 43 
45 46 45 42 44 45 
45 44 43 41 43 42 
40 45 45 42 44 45 
42 43 42 45 45 46 
42 39 45 42 43 44 
44 43 45 45 41 41 
46 43 43 42 43 45 
43 40 41 40 44 43 
45 46 47 47 43 43 
43 41 41 41 41 41 
43 43 44 43 44 42 
44 44 44 43 44 42 
41 42 43 44 41 41 
47 42 41 44 43 39 
41 42 40 43 44 48 
44 45 43 41 44 43 
41 46 43 41 42 42 
44 42 45 43 44 38 
40 42 42 43 43 46 
46 44 48 41 42 44 
44 43 44 44 42 44 
43 42 41 42 44 44 
39 44 42 42 40 43 
44 44 43 43 41 46 
43 45 48 45 42 44 
44 43 45 41 42 43 
42 45 45 44 42 45 
41 41 43 42 45 44 
44 42 44 46 47 50 
45 45 46 47 40 47 
43 43 41 43 42 41 
46 45 47 43 43 45 
42 43 41 43 46 41 
46 47 49 48 47 47 
45 45 46 47 46 43 
46 47 46 42 44 43 
42 44 43 45 47 46 
44 45 44 45 54 58 
53 45 47 47 48 45 
44 45 45 43 43 41 
45 39 42 42 43 40 
44 42 49 46 46 42 
46 55 58 52 47 46 
47 46 46 47 44 45 
42 42 41 48 41 45 
42 44 41 46 44 47 
48 45 40 52 65 63 
44 44 47 45 46 44 
47 42 42 41 43 42 
45 41 42 45 46 45 
44 46 43 47 48 43 
48 61 79 45 42 45 
46 51 46 47 46 45 
45 44 42 36 39 41 
44 46 50 47 44 44 
44 47 41 50 61 80 
50 44 43 45 44 46 
48 42 43 43 40 43 
46 46 42 42 43 44 
42 43 45 46 46 47 
55 55 67 50 45 41 
42 40 46 46 44 41 
43 46 47 43 44 44 
45 47 45 45 47 43 
49 48 45 55 64 64 
50 49 48 44 43 43 
42 41 43 44 44 47 
45 46 40 43 44 42 
42 43 48 48 47 45 
55 66 70 50 50 46 
45 43 46 44 40 43 
46 45 40 46 45 41 
43 44 46 46 47 45 
45 46 43 52 72 79 
48 45 46 43 43 45 
45 43 46 46 46 40 
46 44 43 44 44 42 
41 45 48 46 50 47 
52 63 72 56 47 49 
47 46 45 42 43 45 
42 44 41 42 46 43 
42 45 42 48 45 47 
52 49 47 54 64 70 
64 48 57 48 49 46 
45 44 47 44 45 41 
46 44 45 43 42 44 
46 45 48 47 46 47 
50 52 64 61 50 51 
45 43 44 44 41 45 
46 47 45 47 42 47 
44 44 47 43 47 50 
52 56 49 55 52 56 
62 48 53 61 51 43 
43 44 43 45 46 47 
44 43 45 43 49 47 
48 55 52 54 57 49 
61 61 57 61 50 58 
66 56 47 47 48 41 
43 45 46 40 45 45 
43 46 53 53 54 57 
65 62 49 68 78 67 
68 64 63 65 57 52 
54 50 47 47 44 41 
43 42 46 44 46 45 
47 52 60 70 69 56 
68 84 82 75 70 65 
65 57 51 52 50 47 
48 48 52 42 41 47 
46 45 50 52 52 55 
67 74 62 67 71 85 
60 62 69 80 63 54 
50 48 46 47 44 48 
42 47 44 46 44 48 
49 55 57 61 75 58 
67 63 87 63 64 62 
68 68 58 49 49 48 
46 47 45 42 47 43 
43 50 46 51 55 62 
62 68 54 61 60 89 
56 63 65 59 60 65 
49 48 47 48 46 46 
43 45 47 45 48 49 
53 53 64 70 83 56 
63 64 96 54 58 65 
75 70 61 53 48 48 
48 47 44 48 48 46 
43 49 47 51 53 54 
57 76 55 63 65 89 
57 51 53 62 57 52 
52 48 49 50 46 47 
40 49 48 42 52 50 
55 56 61 69 73 62 
68 76 106 78 60 52 
59 56 50 56 51 54 
50 48 44 42 48 49 
51 50 59 66 81 63 
64 66 72 75 68 89 
108 88 68 62 59 55 
52 52 50 50 45 45 
45 46 50 49 50 56 
65 79 54 54 60 80 
75 68 69 82 93 95 
59 60 59 59 56 55 
57 48 53 46 45 47 
46 46 62 72 76 67 
56 63 76 80 75 73 
72 90 72 59 66 63 
64 51 48 50 50 51 
48 41 46 49 53 60 
60 63 89 57 64 71 
74 75 78 86 90 61 
57 62 60 57 46 50 
50 48 40 45 49 50 
51 53 64 60 66 97 
61 67 94 82 73 83 
114 100 68 59 61 61 
54 49 50 49 46 47 
48 50 46 51 63 73 
64 70 94 69 93 99 
120 114 122 135 103 72 
71 67 77 59 53 52 
48 48 43 51 49 47 
49 61 64 72 73 89 
61 96 77 122 141 151 
157 113 64 66 67 71 
59 54 54 50 50 45 
47 49 49 54 60 59 
70 78 100 59 78 87 
122 171 181 134 120 73 
75 66 69 55 49 50 
52 49 50 46 45 51 
49 50 54 61 98 91 
69 75 76 89 125 143 
97 121 85 85 85 75 
54 50 46 49 46 44 
48 46 46 46 46 46 
55 87 73 62 81 81 
71 95 108 101 123 72 
75 71 69 55 54 47 
44 41 45 42 44 47 
50 54 53 54 78 70 
75 80 92 70 81 81 
81 99 68 69 60 65 
54 51 49 46 47 49 
46 45 46 47 60 56 
53 80 67 66 59 70 
69 66 71 68 83 67 
61 65 67 60 58 54 
49 47 45 47 44 46 
45 48 54 51 71 63 
67 56 69 64 56 71 
74 87 71 58 59 57 
66 68 58 46 44 44 
44 43 45 44 42 47 
45 56 58 65 55 58 
60 58 60 73 96 77 
54 58 58 65 81 58 
44 43 43 44 41 43 
40 45 47 49 52 51 
58 61 66 62 61 56 
59 75 73 61 53 59 
79 72 49 43 45 49 
42 41 43 42 44 45 
50 53 56 55 66 66 
60 59 57 61 61 64 
56 51 81 88 52 46 
46 43 45 44 43 46 
45 43 42 46 54 54 
58 64 66 59 57 59 
60 64 55 49 58 74 
60 48 47 47 45 46 
42 41 44 43 43 45 
46 50 56 51 67 67 
59 64 65 69 82 63 
48 49 48 45 43 46 
43 43 39 46 43 46 
45 43 45 45 44 44 
51 58 52 58 55 52 
63 62 50 44 48 43 
43 43 43 42 42 37 
47 43 42 44 43 42 
44 46 42 44 48 51 
53 53 51 56 49 46 
41 41 43 42 43 43 
41 43 44 45 43 45 
47 43 40 42 43 41 
43 41 45 49 52 49 
46 45 42 45 42 44 
45 46 41 42 41 42 
44 42 42 43 44 42 
42 45 44 44 43 45 
47 47 49 47 46 43 
45 45 45 42 43 43 
43 42 44 41 43 44 
42 43 39 39 43 46 
46 45 43 44 46 42 
48 45 42 42 42 41 
44 46 44 42 41 41 
46 48 46 46 45 42 
45 43 44 45 45 43 
46 43 43 46 45 44 
43 40 44 43 45 45 
45 42 43 44 46 45 
44 44 43 46 45 43 
45 42 43 48 48 46 
42 45 46 46 41 46 
42 45 45 43 45 41 
44 43 44 45 45 46 
44 45 42 43 43 47 
47 46 45 46 44 44 
42 46 43 41 41 43 
43 44 41 45 39 47 
46 42 44 43 48 39 
42 42 46 45 45 45 
42 42 49 44 42 41 
41 42 42 42 49 48 
40 49 48 42 41 41 
46 47 42 52 42 43 
48 42 42 42 45 45 
52 46 43 42 43 45 
48 42 48 45 44 44 
43 41 43 45 45 43 
45 44 43 46 45 44 
47 43 42 47 46 42 
42 42 42 46 44 50 
43 44 45 43 46 46 
44 44 45 45 44 42 
44 45 45 43 44 43 
45 42 43 45 47 45 
44 43 44 44 40 44 
42 45 44 41 43 43 
44 44 41 44 46 45 
46 43 41 45 44 43 
45 45 44 44 47 42 
47 40 44 43 42 44 
47 49 45 44 43 42 
44 43 41 45 45 44 
43 44 43 47 44 41 
42 45 49 43 45 45 
47 43 46 46 43 45 
43 44 42 44 45 41 
46 44 44 45 45 42 
43 39 42 45 41 46 
45 47 43 44 41 43 
47 43 44 47 44 45 
44 46 43 46 45 42 
45 43 42 43 40 44 
46 42 41 43 45 41 
45 44 41 44 40 45 
44 43 43 41 45 48 
43 45 43 43 44 44 
44 42 43 45 43 43 
39 41 43 45 44 43 
43 42 42 43 39 41 
41 45 42 43 42 41 
44 40 40 46 43 45 
45 46 45 48 43 40 
44 42 41 44 44 41 
42 42 43 45 45 42 
43 42 41 42 43 42 
41 40 44 46 42 44 
40 44 43 42 40 41 
44 45 43 41 41 43 
44 44 40 43 42 40 
45 43 43 39 42 42 
43 45 48 41 42 43 
39 41 43 42 44 46 
44 43 44 42 42 44 
42 41 42 42 41 44 
44 45 43 43 44 40 
39 41 40 41 43 43 
42 46 49 45 45 47 
45 41 46 47 42 44 
42 41 42 43 45 44 
44 46 43 43 42 44 
44 43 41 40 45 46 
44 44 47 43 44 43 
44 47 48 44 42 45 
43 44 42 42 41 42 
43 44 47 43 42 43 
44 44 42 44 43 45 
48 56 52 49 46 47 
46 47 42 43 47 43 
44 46 48 44 46 46 
44 45 43 47 45 46 
45 45 46 46 60 62 
51 44 47 44 46 42 
42 45 44 41 43 44 
40 44 41 45 45 40 
47 44 45 47 48 47 
44 55 59 49 45 46 
46 45 45 42 40 42 
43 44 43 44 43 41 
42 43 44 46 43 48 
51 45 42 46 56 68 
49 47 47 47 47 42 
46 43 44 43 45 44 
39 45 42 43 46 45 
44 44 47 47 43 45 
48 53 70 46 48 46 
44 45 41 43 46 45 
40 45 42 40 42 46 
43 42 46 45 47 45 
45 47 46 49 63 66 
48 49 44 44 44 43 
44 43 42 41 43 41 
46 44 44 42 44 43 
48 47 46 49 47 47 
49 60 75 48 45 42 
42 45 43 44 46 42 
45 42 47 40 43 45 
47 45 44 46 47 49 
50 43 48 49 58 72 
50 45 48 43 44 43 
44 44 43 43 42 39 
38 42 42 47 45 42 
46 48 44 43 44 46 
55 64 74 50 49 49 
43 46 46 44 43 45 
45 47 49 45 45 42 
46 45 43 48 48 46 
47 48 45 54 62 74 
53 47 52 43 42 47 
44 45 48 45 45 42 
50 45 44 42 42 44 
46 43 44 45 48 47 
56 62 68 53 47 52 
48 48 48 43 45 44 
45 43 43 45 46 43 
42 46 46 49 47 44 
45 51 47 54 63 67 
56 51 59 48 49 44 
50 45 42 45 42 45 
47 44 44 45 47 46 
44 46 49 49 47 49 
53 58 62 55 51 54 
47 49 45 45 43 45 
45 44 46 47 45 43 